65
Lattice="13.45251797 0.0 0.0 0.0 13.45251797 0.0 0.0 0.0 13.45251797" Properties=species:S:1:pos:R:3:forces:R:3 energy=-1781.11579422 stress="0.038094365632126446 0.004892713373938655 0.00047731436726254845 0.004892713373938655 0.037231889565467816 -0.0007964379291484417 0.00047731436726254845 -0.0007964379291484417 0.035754737921089005" free_energy=-1781.11579422 pbc="T T T"
Cl       5.48600006       7.94719001      12.64709998      -0.52802034      -0.19751776      -0.14382601
Cl      12.62689995       6.79124998       9.41104001       0.21943735       0.95435485       0.78410186
Cl       2.31856999       5.55208999       0.04638200       0.51417468       0.81251243      -0.79101171
Cl       5.00417996      10.20839994       4.56235999       0.19704331      -0.24221548      -0.75335398
Cl      12.84653692       4.24560996       6.75942993       0.46882655      -0.56880475       1.82608604
Cl       6.43878002       0.82205795       0.04150452       1.55254292      -1.19260284      -0.06603556
Cl      11.57889997       3.19495001       2.09346000      -0.16622032       0.59724150      -0.18913529
Cl      10.02080001       4.95377997       8.43322007      -0.20186027      -0.51599887      -0.09586541
Cl       8.16297001       3.79905995       3.21789005       0.50795373       0.73308378      -0.72518663
Cl       8.08864996       4.61970000      13.16720002       0.91279587       0.35455091       0.60787403
Cl       2.56248997       5.47639993       9.12960997       0.16960860       1.16601528       1.09269533
Cl       0.40639694      12.23219998      11.55969999       0.55447838      -0.14443766       0.34446288
Cl      11.01460006       0.84514798      12.77420004      -1.41073367      -0.97358067       0.03274225
Cl       1.18744999       8.67896999      11.91830000       0.66276971      -0.40172411       0.36098363
Cl       4.06335996       0.06052005       7.86863000      -0.14768894      -1.03164662      -0.40770083
Cl       0.97120696       2.55006993      11.92420000      -0.53189123      -0.52433996      -0.47011446
Cl       7.36419003       6.51663001       5.63827005      -0.09681369      -0.79587973       0.97463003
Cl       1.24247994       7.85560002       5.99736995      -0.46104414       0.09368648      -0.83979777
Cl       3.26549004      11.92980002       1.50527004      -0.41267950       0.96593507      -1.13331034
Cl       1.88050004       5.13360005       3.96964003       0.18165506      -0.19195871      -0.23366408
Cl      11.62849994      11.59039998       5.64797994      -0.08297485       0.44992244      -0.00496406
Cl       4.07399996      10.71740004      10.93649999      -0.06042159      -1.46004519      -0.26735969
Cl       7.00172996      11.50119997       7.44186003       0.49455649       0.11802716      -0.10423056
Cl       5.12759000       5.95792999       2.75578005       0.07020954       0.21403954       0.00474660
Cl      10.83710001       6.70881995       4.30658996       1.84914854       0.17205041      -0.92976409
Cl       4.87091999       4.23651001       6.48194996      -0.34345121      -0.57233777      -0.89246174
Cl       1.85768000       1.70312994       4.72219999       0.06418894      -0.24964349      -0.61377760
Cl       8.02962004      12.48389995      10.57939994       0.96807651       0.14870717       0.28787564
Cl       3.24842996       2.13709001       1.27930998       0.18557760       0.62092492       0.63056276
Cl      11.47359998       4.43941999      12.03459998       0.45121182      -0.13167732      -0.97908862
Cl       1.66708997      10.04819996       8.68547994       0.41111767      -0.29115126      -0.03390673
Cl       6.12682003       6.25522001       9.39709002      -0.83644326       0.69370685       0.47609391
Cl      10.46979999       1.55320001       9.39402998       0.27299175      -0.09997342      -0.33440636
Cl       9.34529002       7.69013001      10.84020001       1.94705102       0.80078823       0.21112863
Cl       8.83910002       9.59433003       4.38705996      -1.80760915      -0.42234287      -1.09509901
Cl       7.79318007       1.51188007       7.16904000       0.47617885      -0.05812356       0.22634368
Cl       0.24675994       0.18239596       1.34067000       0.13175434       0.25272152       0.15539394
Cl       5.59626994       0.99371006       4.10378007      -1.56217623       2.07126512      -0.33973656
Cl      11.05780000       1.61593005       5.39078004       0.64025450      -1.38174755       0.08478168
Cl       8.55465998       7.31013997       1.76510999      -1.00142139       1.17249880       0.09658574
Cl      13.08529302       0.14268306       8.15096996      -0.39000634       0.60807626       0.13106993
Cl       7.41003003       3.32472995      10.25169997      -0.24787815       0.34478209      -1.58177028
Cl       1.62688995      11.45970003       5.56296998       0.08936322       0.25675675      -0.49862684
Cl      10.01669995      13.25190003       2.57312997      -0.32765486      -0.63319345      -1.56931219
Cl       3.97378004       2.00429993      11.14569996      -0.32931494      -1.39362316       0.79812628
Cl       4.69268005       8.52661000       7.40934005      -0.36290005       0.31906339       0.82122758
Cl       2.38743007       8.44301000       2.43745998       0.52710482       0.13572827      -0.17772170
Cl      12.91660006      10.42339997       2.47375999       0.43782543      -0.02302211       0.95354925
Cl      10.31509994      10.20189996      12.91869999       0.76978753       0.51109408      -0.54654400
Cl      10.57250001      10.48219998       9.03581996       0.55064183      -0.36357600       0.31092753
Cl      12.34259995       6.68016999       1.17543999       1.42695206       1.18531003       0.02969410
Cl       7.23765995      10.62540002       1.23931994      -0.27743674      -0.06178076      -0.11451823
Th       4.03476004      11.05449996       6.96395005       0.11317537       0.30918823       1.34901502
Th       9.70142001      12.67189997       7.84188007      -0.09737357       2.95790115      -0.74215561
Th      10.15700003       5.22611005       1.27090995      -1.66369066      -3.66867664       0.56320080
Th      12.79239995       3.57125999       9.28532004      -2.19711825       0.05652752      -0.06051889
Th      12.34929998       9.17255996      10.89450002      -2.73594437      -0.64291402      -0.93348626
Th       3.71816996       7.69207996      10.67710006       0.29580758      -0.13207507      -0.42456662
Th       6.34710999       8.50304994       2.52564998       1.67979299       0.27453184       2.00582160
Th       7.32881004       4.42126003       7.81325997       1.13984320      -0.27015371       0.24952540
Th       3.98905995       3.38436994       3.64279994       1.15327503      -1.34008852       0.98660501
Th       2.58573000       0.41312696      12.76570007      -0.30369532      -0.25838399      -0.71324118
Th       0.28370096       7.68661003       3.58461995      -1.84274381      -0.73213205       0.58189230
Th       0.03288199      12.93569994       3.84512998      -1.98013428       0.14463787       1.06593213
Th       8.89748005      12.78989994      13.31864403       0.32016836       1.47173913       0.76258332
65
Lattice="13.45251797 0.0 0.0 0.0 13.45251797 0.0 0.0 0.0 13.45251797" Properties=species:S:1:pos:R:3:forces:R:3 energy=-1780.48338795 stress="0.03659554847375289 -0.0008541848958678801 -0.0006064408301719241 -0.0008541848958678801 0.04446689206738424 -0.00446629397602055 -0.0006064408301719241 -0.00446629397602055 0.035083745162835425" free_energy=-1780.483388 pbc="T T T"
Cl       3.83138998       2.25744000      10.36190004       0.95878762      -1.93023205      -2.15071107
Cl      10.37620006       7.07414002      10.02649997      -1.14819295      -0.52140931       1.21045568
Cl      10.29869997      10.70829995       4.98733001       1.60983870       0.30078972      -0.68436452
Cl       1.01965997       0.53925104       6.81430007       0.43841219       0.66207241       0.68973102
Cl      10.77370004       2.82189999      10.55220003       0.89206469       0.03253282      -1.00812521
Cl      10.44539995      12.06249996       1.78117001      -0.14846849       0.27484038      -0.15359728
Cl       9.93159999       7.69755997       6.71443005      -1.29254186       1.53976745      -0.66686291
Cl       7.24894002       4.49103999       5.12708001      -0.42401843       0.30250979       0.33700514
Cl       5.81496995      11.54670002       7.21803999      -0.34711586       1.05907642       0.33260594
Cl       0.65706497       4.77655004       6.64324995       0.72462061       1.21005439       0.24640935
Cl       7.90025000       1.15258995       6.77571004      -0.05192356       0.53868788      -0.86159221
Cl      11.49770003      13.34129995       8.80218995      -0.45811953      -0.47987555       0.03484201
Cl       0.14508796      12.98920007       2.58132000       0.20678194      -0.39080195       0.01226760
Cl       1.86132994       9.70896997       2.51950003      -1.80235758       0.32409042       0.05982248
Cl       1.14346995       5.54851996       2.56626004      -0.64630327      -0.04657604      -2.63456278
Cl       0.03784987       2.57854004       3.83323002       1.38597136      -0.72071805      -0.91683770
Cl       4.08602005      13.19269994       4.05348998      -1.29805236       0.96138773      -1.38571673
Cl       0.86594100       0.57395397      10.12320004      -0.36459982       1.18091310      -0.38146819
Cl       7.76663004       8.34850997       3.77013004      -0.59224041      -0.71871153      -0.24508691
Cl      10.37690000       5.23574999       3.71217996      -1.06689242      -1.79075674       0.55489352
Cl      11.06470007       5.22227003      13.09310005       0.52195007       0.29870711      -0.15326851
Cl      13.14300002       8.20371998       5.26892996       0.45182427       0.30400286      -0.16020933
Cl       6.91496997       4.46350995       9.17299004       1.24774916       0.88377786       1.78447431
Cl       7.46544996       2.06993006       2.92019996      -0.58135884      -0.97004427      -0.57635523
Cl       4.18993995       2.48952002       6.38472000       0.33780707      -1.84184166       1.73094008
Cl       4.40296998       7.53979005       1.63272000       0.01244009       0.11188557      -0.27633556
Cl      10.57610004       3.39720001       6.95861007       0.41673546       0.42100263       0.61757667
Cl       8.98045007      13.28510004      11.36230003       0.15353099      -1.02634161       1.54524831
Cl       9.03837002      10.30680000       8.70239997       0.04577989       0.45240917       0.22502121
Cl       2.40374004      10.02360001       6.03676995       0.06278536      -1.80442487       0.75661550
Cl      12.73730005      11.18890003      12.51530001      -0.77058805      -0.29698601      -0.70814852
Cl       7.73990003       2.98275995      12.41510001       0.13586725       1.60135924      -0.39022124
Cl      11.09550001       0.52718494       5.26233002      -0.97989872       0.76373944      -0.71047168
Cl      10.17349994       2.31946001       1.10555994      -1.08385597      -2.14857769       0.79706561
Cl       1.21615995       7.72471994      12.54320000       0.26869174       0.69731836       0.02183226
Cl       7.23847006       5.59294999       1.03079004       0.17844283       0.16197927      -0.04077183
Cl       4.16510996       3.69985005       2.85307001       0.25556030       0.30880730       0.15123600
Cl       3.24135004       5.01848994      12.71120002      -1.57649369       0.19978982       0.12840295
Cl       3.74662002      10.98099998      10.36459996       0.14561467      -0.92862738       0.86376643
Cl      13.03249996       9.21519005       9.16129994      -1.07583636       0.82259832       0.77148623
Cl       3.97444002       6.53942006       5.11242000       0.36145441      -0.12324429      -0.25995552
Cl       2.94215998      11.78239997       0.11333302       0.09409297      -0.95115392      -0.07528809
Cl       6.23558996       7.46719004      10.97800007       0.13143040      -0.43261599       1.13751051
Cl       3.07803001       7.04332004       9.31027003      -0.66720107       0.27211988      -1.50156323
Cl       7.49219007      11.73399996       3.57480002       0.25910750       1.05142127      -0.81138830
Cl       8.82535007       9.40504005      12.23770004       1.70935173       0.58541414      -0.91120893
Cl       0.32863802       4.55404997      10.01549998      -0.05638814      -0.17162242       1.01741610
Cl       6.20673001      10.42619998       0.62978393      -1.13510054      -0.32335775      -0.74280159
Cl       6.49109000       8.09576998       7.11852001      -0.15944932       0.11331009      -0.24187232
Cl      11.09299999       8.81681996       1.55007997       1.52110931       1.31195013       1.47494301
Cl       4.94822004       1.27757998       0.85387504      -0.15948312      -0.55371013      -0.23648516
Cl       0.78492900       2.29726995      13.43899994       0.46486342       0.44950430       0.42080239
Th       8.30882006       5.60355004      11.63689996      -0.39607878      -1.05230904      -2.57978124
Th      12.59270001      10.60120002       3.21858999       0.35923515      -2.56131331      -0.93662219
Th       8.15841001       9.81473999       6.18592004       0.03378407      -1.93160013       0.63416146
Th       4.39306005       0.44494795       8.18663003      -1.40976693       2.43270666      -0.33570683
Th       2.02154001       7.27439999       6.77619998      -1.54901543       1.14563718       0.40959189
Th      10.99959997      10.53080003      10.61240004      -0.18633653      -0.48433038       0.49470384
Th       8.26149007      13.39806150       1.25399005       0.63872517       0.79422102      -0.51859988
Th      12.66730001       2.30858002       8.59334001       0.62060035      -1.56444577       1.20929005
Th       2.61333995       1.12694003       2.05522996       0.27921579       0.46719481       1.83647249
Th       6.17039005       6.13359001       3.37970999      -0.62056409      -0.19631592      -0.46008327
Th       3.69315998       9.05502007      12.81020006       1.24944199       2.83430314       0.23780795
Th       9.32669999       2.60772998       4.76499998       2.39681922       0.07454176       0.62370800
Th       0.45318802       5.10950995      13.06959998       1.47775439      -0.98448004       1.34795797
65
Lattice="13.45251797 0.0 0.0 0.0 13.45251797 0.0 0.0 0.0 13.45251797" Properties=species:S:1:pos:R:3:forces:R:3 energy=-1780.18500967 stress="0.03225295182761913 -0.004160501278986083 -0.005713286457412774 -0.004160501278986083 0.03458524793123732 0.002776122190435598 -0.005713286457412774 0.002776122190435598 0.03813239944138873" free_energy=-1780.18500967 pbc="T T T"
Cl      11.08519995       3.35172996       5.51763002       0.40169807       1.60085261       0.31151975
Cl       7.58874000       3.74907995       6.83660999      -1.23817049       0.24706727      -0.29611819
Cl       0.12667698       5.95527002       4.36222002       0.20168181       0.18281779      -0.21796971
Cl      12.55399995       8.05224005       1.61278000       0.07942890       0.18254800      -0.10829585
Cl       5.69603005       1.27289999       2.04860997      -0.21142797       1.26412198       1.70152626
Cl       3.65142005       5.04172998       3.02635996      -0.01236969       0.11263527      -0.08198747
Cl       5.03317996       0.10038202       8.27222006      -1.84651861       0.98097253       0.55181016
Cl       7.02816994       0.73948895       5.17364994       0.56556874      -0.53738828      -0.05409198
Cl       6.73897000       8.19956005      13.37240002       0.53769535       0.76392481       0.15483839
Cl       1.57439997      12.14730006      10.05069998       0.38975559       0.76213227      -0.26768070
Cl      10.23139998       0.56103793       2.79171994      -0.78763891      -0.89999313       1.26188563
Cl       9.37820995       6.29894998       8.97695995      -0.78636653      -0.45267238      -0.09457417
Cl       0.55872007       4.65317000       7.97994003      -0.61689659       0.55867993      -0.61336861
Cl       7.72399996       2.08290004       9.94456001      -0.32678057       0.44275627       0.29928948
Cl       7.78682994      11.38000005       8.97003997       0.31977089       0.84192797       0.87595168
Cl      10.42800006       7.65118995       5.11399004       0.72481166      -1.00216883       0.80569538
Cl      11.10750006       3.14539995       8.85374995      -0.26751198       0.16747189       0.05174511
Cl       2.53592004       1.34555999       0.80857395      -2.24083844       1.40519534       0.01556332
Cl       4.37909997       8.16801000       4.95689006       0.48824171       0.77788243       1.30304292
Cl       6.17477005       7.45527004       8.19829996       0.05089404      -0.37522221       0.26522750
Cl       8.81306994      12.32130004      12.37069997       0.01234867       0.09679346       0.00519491
Cl      11.36189995       5.09412000       1.55185005      -0.49954008      -0.03364720      -0.14386975
Cl       9.93005995      13.21566191       7.45530999      -0.23955243       0.23708391      -1.26701307
Cl      12.49640003       6.59123001      11.00400002       0.17174206       0.78334629       0.03784826
Cl       8.60299999       5.71877005      12.11149995      -0.13807547       0.11107504       0.17338745
Cl      12.96244691      12.98009998       0.13925199      -0.25869707       1.57972885       0.52555791
Cl      11.65289998      11.39720003       4.98379994       0.24227970       0.06773861       0.02837758
Cl       3.59608997       6.42880000      11.21110005       0.75727301       0.34674713       0.01228260
Cl       2.70542997      12.19580002       2.47704994      -0.65335233      -0.40166938       1.00004794
Cl       7.53700996       4.20930000       2.86630998      -0.74519325      -0.48587659       0.73953704
Cl      12.05099994       8.33112003       8.03651002       0.43036671       0.21670786       1.10711872
Cl       4.38723996       3.86927994       9.19025998      -0.06194271      -0.75922266       0.05900759
Cl       6.19850002      11.43440001       1.65029006      -1.22466981      -0.62014284      -1.67848363
Cl       3.29208002       2.55198006       5.94355006       0.64592209      -0.17426975       0.24878042
Cl      11.09339994       2.70026999      12.60829996       0.91524999      -0.46425110       0.87748083
Cl       9.24005003      10.54469998       2.56340003       0.20159926      -0.08054667       0.25182715
Cl       0.24798197       0.95233899       3.53942003      -0.34086716       0.42511207      -0.32611513
Cl       5.02729004       9.78806997      10.38599995      -0.30132050       0.55438213       1.14702692
Cl       7.74551995       7.58698001       3.28146006       1.02821913      -0.03956797      -1.72705516
Cl       1.20765003       4.56626001       0.60120796       0.28638562      -0.00783658      -0.52130248
Cl       5.49373996       4.31366006      13.01770003       1.05460955       0.32399814      -1.93286692
Cl       0.79888007       0.28234494       6.85035994       0.50933010      -0.14927088       0.16606556
Cl       1.27257995       9.42782001       3.93483998      -0.45597589       0.52666419       0.13676880
Cl      11.44680001      11.47290004       9.60414001       0.23506709      -0.72279852       1.13809442
Cl       3.33320006      11.42310003       6.05025005      -0.47580058       0.59821096      -0.34085301
Cl       4.53175995      13.23480000      11.89830001       0.20475048      -1.96506820       0.89482293
Cl       3.52718994       8.63407006       1.49342994       0.96108619       0.84670767      -0.41052362
Cl       1.19724006       8.77419001      12.55350005       0.62209249       0.16538899       0.32909954
Cl       6.97773995      10.72399998       5.67830003       0.23318349      -0.02278514      -0.17807677
Cl      10.40560000       8.66218999      12.53810001       0.62579691       1.29174647      -1.56272964
Cl       0.80279098       2.72539996      11.01649996       1.49556208      -0.99397152      -1.24649397
Cl       2.23928004       8.44279005       8.15268005       1.48709173       0.98388268      -0.40678167
Th       9.06674999      12.28629995       4.71438999       0.76133880       1.36574143      -0.98082879
Th       4.85441994       9.59908994       7.13030994      -1.56437397      -2.04042566       0.57052270
Th       9.27031995       0.01254057      10.13989999       0.23379696      -0.89352079      -1.54556557
Th       9.38696996       7.64244003       1.15231995      -2.24670946      -1.68854003       2.98025970
Th      13.01860001       2.42178000       1.01023002       0.31031782      -2.79451466      -1.63608541
Th       6.77709995       5.26247006      10.13939996      -0.57294198      -0.38022398       1.12562986
Th       2.67979996       1.60080000       8.96839998      -0.18565572      -0.65187260       0.01603028
Th       4.67961994      10.69529998      13.00629997       1.39679743       1.20989372      -0.24157494
Th      12.71010000       9.12773994      10.84669999      -0.69876900      -0.31959409      -2.61724188
Th       1.58068001       6.98145002       1.49708001      -1.03994522      -0.79193582       2.17429374
Th      11.71420001       5.69949999       6.84978001      -0.14361704      -2.05872387      -0.75309558
Th       5.65700994       2.97312001       4.18558994       0.50453091       0.17164932      -1.34341549
Th       0.95712903      12.05709998       4.54555995       1.09523439      -0.38586396      -0.74909931
65
Lattice="13.45251797 0.0 0.0 0.0 13.45251797 0.0 0.0 0.0 13.45251797" Properties=species:S:1:pos:R:3:forces:R:3 energy=-1777.47048558 stress="0.04724540180982274 -0.001849925708265584 -0.0041243836317499715 -0.001849925708265584 0.03467448001598002 -0.006960175111300689 -0.0041243836317499715 -0.006960175111300689 0.03552472060888033" free_energy=-1777.47048558 pbc="T T T"
Cl       2.81047006      12.50040000       3.50253995      -1.48633167      -1.42142058      -1.31649410
Cl       6.87458995       5.54975006      10.06100003      -0.16179283       0.17889710      -0.17073179
Cl       9.45616003       2.51450995       6.23059006       0.17840212      -0.86936801       0.59347036
Cl       0.87550695       7.27324993       7.92498004      -0.18181660      -0.36590848       0.17226239
Cl       9.84058994       7.65683005       9.07548000      -1.30271608       0.25335968       1.62356872
Cl       6.04245001       7.84172994      12.92159995      -0.61781157      -0.40055080       0.57134071
Cl      12.12779996       5.80649002       4.79419006       0.59705740       0.19709550      -0.07812923
Cl       0.90778694       0.54007205      10.60280006       0.31414790       0.04635578      -0.07465670
Cl       1.59353994       8.71932001       0.25396699      -0.46615942       0.28301719       0.06539300
Cl       1.54735005       8.70098006       4.32405994      -0.83290299       1.05285273      -1.44498592
Cl       2.24585994       5.51247999       3.22553001      -0.29526031       0.11044051       0.17510475
Cl      12.01119999       9.34556997      11.51990005       2.17585942      -1.80558027      -0.59751690
Cl       6.40770995       0.50936897       2.77156995      -0.62123185      -0.32972126       0.68650915
Cl       7.68608000       4.33796997       1.69936996       0.58533124       0.63803639       0.49465692
Cl       4.33432999       7.06920994       6.15546999      -0.14210486       0.00708956      -0.53230085
Cl       8.20853006      12.87100006       7.51855996       2.16088861       0.13683768      -0.72619550
Cl       9.49642005       6.70040002      13.36349997       0.38475156      -0.25246090       0.49634993
Cl       5.18710004       7.50690995       2.81265999       0.22607071      -0.30507337       0.02665970
Cl       8.72259005       7.25212006       3.39196994      -0.00418029       0.32843015       0.21170887
Cl      12.88447491      10.61119995       7.34843000      -0.86964306       1.64796753       0.04716737
Cl       3.81913003      12.18340003       7.65537005      -0.52150623       0.18693450       1.38651972
Cl       5.93066994      12.86529996      12.87819998       1.27855977      -0.29509392       0.15932320
Cl       7.03104999       8.98141004       7.89824006      -0.12572371      -0.52843515      -0.86392460
Cl      12.06650007      12.19399994      13.00650001      -0.10550982       0.44505572       0.85653939
Cl       2.18728996      12.17079999      13.34179998       0.08351037      -0.43585351      -0.42191053
Cl      11.79980000       0.60293002       8.47484996       0.76002447       1.05187467       1.79513179
Cl       6.19424002      11.18989996       5.19426996      -0.21464640      -0.61309661      -0.11153966
Cl      11.28279996       9.43514006       2.17748994       2.39080704       0.89371696      -0.11194207
Cl       3.81600003       7.37448000       9.81247996      -1.33113312       0.39690399       0.77391156
Cl       8.83299002      10.10610000      12.49100006      -0.13635869      -0.02162314      -0.35006357
Cl       1.86476006      10.11160006      10.25460006       0.05035330       0.60626029      -0.18538210
Cl       6.00438006       1.97418997       6.16926999       0.34328485       0.23512830       0.35585279
Cl      13.25610004       3.72606000       7.10507005       0.99100097       0.82554458      -0.44045699
Cl       9.61081004      12.92087500       2.81454993      -0.04227740      -0.01624875      -1.06239169
Cl       2.21383999       5.51435003      12.23189999      -0.15151113       1.33259650       0.28746407
Cl       7.43745998       5.26402006       6.02808998      -0.29125711      -0.09781340       0.97427530
Cl      12.76509995       6.30595995       1.31250998      -0.12251721      -0.31268206      -0.02801164
Cl       9.45008998      13.37639999      11.02420005       0.42884959      -0.33799747       0.14497455
Cl       3.62064997       3.62472003       8.11153001       0.55295895       0.90277474      -0.55007239
Cl       5.33099005       2.67445003      12.89660006      -0.80178964       2.09985186       1.09752273
Cl       9.88931994       2.05614002      13.06860302       1.40358604       0.13890687      -0.16452940
Cl       1.86039001       2.90168001       0.57497797       0.88021358       1.10211652       0.51344714
Cl       4.45258005       3.04471001       3.32060998      -0.28010908       0.96153376      -0.76523192
Cl       5.55345004      10.55440005      10.31430005      -0.65551138       0.35591122       0.45711025
Cl      12.34130003       4.47413999      11.14100006       0.30077307      -0.67019162      -0.02890228
Cl       9.42203005       3.44401007       9.85756002      -0.18436252      -0.64991752      -0.59283340
Cl       2.21515995       1.33387998       5.90055998       1.21414968      -0.36423495      -0.69497481
Cl       9.98164995      10.02509997       5.84983000      -0.85336709       0.73789144      -0.42181378
Cl       7.15026998      10.66640007       2.01358997       0.56777398      -0.06909959      -0.38531153
Cl      12.66250002      12.11110001       4.38612003       0.36547063      -0.01804589      -0.79357045
Cl      11.15290002       2.82374998       2.85754997      -0.17016279       1.57012507      -0.25960990
Cl       5.57398006       1.18265000       9.71916994      -0.18790677       0.05801387      -0.23731853
Th       7.00133002       3.52452998       8.20651998       0.07536291      -0.40581395      -0.25065808
Th      10.60930005       5.43409002       2.41573995      -1.17344645      -1.45190322      -1.40058592
Th       4.07520006       5.14064997       1.22574003       0.18167797      -4.54190368      -0.47077801
Th      11.94479998       1.90042995      11.07729996      -3.22231228      -0.41835928       1.23939077
Th      10.91960000      13.00259999       6.41521995      -2.84748585      -3.33952969      -1.42534373
Th       0.75792199       7.79590003      10.92139994       0.68757589      -0.34875197       0.42957971
Th       8.56175995      12.54930004       0.30857305      -0.85432942       0.30863121       0.62874273
Th       0.44358104      10.51269994       2.13184998      -1.46611403      -0.67826568       0.47990947
Th       3.25810003      12.39659997      10.37400004       2.44850703       0.31453894      -0.22162104
Th       4.64106005       0.17477606       4.75295997       0.41770144       1.64310602       0.37975303
Th       1.38633000       5.48169000       5.92479994       0.24905328      -0.08565996       0.96162730
Th       7.44953994       8.29327998      10.90600004       1.41653551      -0.27690030      -2.81387579
Th       6.98085999       8.52130003       4.86289005      -0.98894964       0.67970817       1.90839746
65
Lattice="13.45251797 0.0 0.0 0.0 13.45251797 0.0 0.0 0.0 13.45251797" Properties=species:S:1:pos:R:3:forces:R:3 energy=-1782.11827572 stress="0.029061944423299877 -0.0036304988878789165 0.0006003769668787817 -0.0036304988878789165 0.03215298733686278 -0.002540674902600601 0.0006003769668787817 -0.002540674902600601 0.029531898528374782" free_energy=-1782.11857182 pbc="T T T"
Cl       8.97456997       7.45393999       8.82429997       0.70433845      -1.15890517       0.22476083
Cl       9.41945994       5.72205004       6.03500996       1.11026380      -0.71072000       1.12512081
Cl      12.89989997       6.26816994       0.55751607       0.58999306      -0.80702732       2.14150392
Cl      13.30290001       8.99583006      11.23289999       0.80012353      -1.19306972      -0.10105590
Cl       4.86278001      12.96990001       0.10018400       0.59401071       0.42427160       1.32811447
Cl       6.73711006       1.51817006      11.50030000       0.22790087      -0.09731306       0.02979267
Cl       9.43733000       7.91593995      12.60689995       1.46824505       1.26506426       0.94474314