65
Lattice="13.45251797 0.0 0.0 0.0 13.45251797 0.0 0.0 0.0 13.45251797" Properties=species:S:1:pos:R:3:forces:R:3 energy=-1781.10209802 stress="0.04199154430078175 0.0040603950622820125 -0.002216721205322933 0.0040603950622820125 0.031827724395664836 0.0022902701065303176 -0.002216721205322933 0.0022902701065303176 0.030870726090924623" free_energy=-1781.10834249 pbc="T T T" config_type=melt 
Cl       1.02200003       6.57531003       4.86445996       0.18002698      -0.46122033       0.48629822
Cl       9.83467998      12.87240006       9.92718999      -0.28593743      -0.08619856      -0.42473515
Cl      11.99469994       6.23788994       1.63939998      -2.08411665      -0.02047458       0.82809712
Cl       5.72753006       2.28044004       9.37486996       1.23555628      -1.40109182       0.45268567
Cl       9.16677000       7.12114998       5.50631995      -0.45792942      -0.23618093      -1.05538577
Cl       9.11384994       8.80828004       2.34876995      -0.58712013       0.03322324      -0.10160237
Cl       0.68618200       0.04368207       1.99376998      -1.53161316      -0.36127854       0.88294888
Cl       3.69089000       3.31992000       3.18320005       0.70046681       0.07324236      -0.48435429
Cl       9.31518006       8.05610994      12.45140001      -0.32614386      -0.36141090      -0.88042955
Cl       7.56662003       4.29463995       4.64864000      -0.49465448      -1.00055171      -0.40434779
Cl       1.58614994       5.55963995      13.11280005       0.59142444      -0.45807479       0.39619450
Cl       4.35399004       0.46758208       6.44546996       0.78539905       0.89236836      -1.41722210
Cl      11.09200007      12.81719994       5.52446000       0.34681646      -0.07976281       0.18183654
Cl       6.50426997       6.59260997       2.22938007       0.88757281      -0.48779712      -0.31638326
Cl       6.48175005      11.21629999       8.71967005      -0.19108854      -0.61037491      -0.06434616
Cl       6.25284995       5.52407996      11.83309996      -0.81964334      -0.10717370       0.34543926
Cl       8.88118999       2.91605994      10.62859997      -0.00246633       1.22497961       0.13581380
Cl      12.93290007       3.33106999       8.78029005       0.68680066       0.84297870      -1.24786187
Cl       6.26198003       0.50068200       2.87023004       0.33368448      -0.95074764      -0.53571976
Cl       5.00334994       6.62261002       5.22523994       1.08938857       1.20781074       1.44218070
Cl       9.04799005       5.05435005       0.15615696       0.15903053      -0.52264527       0.56730511
Cl       6.48513000      10.50600004       5.40693006       0.15095715      -0.77553482       0.11675344
Cl       0.18484096       8.85442997       0.12472502       0.26682217      -0.60736560      -0.58105072
Cl       0.31182304       3.37713007       2.29194006      -1.13472244      -1.17464581       0.74916737
Cl       3.03937998       7.97833003      11.31659994      -1.53458927      -0.27715217      -0.32085600
Cl       2.25248006       3.11358999      10.74969994       0.69366797      -0.06975589       0.95020247
Cl      12.94077194       9.51431002       9.77193004       0.01600960       0.12079769      -0.02558460
Cl      11.36189995       3.91513003       5.42216005       0.74059621      -0.43134344      -0.44612097
Cl       1.24690999       6.25087000       8.71293007      -0.03622187       0.66327346       0.53680339
Cl       7.58420004      13.19689995      12.73489999      -0.42804281      -0.43034821       0.74456285
Cl       7.59020996       6.70546005       9.00729995      -0.82574487       0.60302832      -1.69927100
Cl       1.71753005      11.13170006       5.74918996      -0.98178006      -0.60690247      -0.79593648
Cl      12.31829999      12.10719999      12.27820005       1.53342674       0.26682442      -0.21797116
Cl       4.14787002      11.42209997       3.13632004       0.43893052      -0.45600657      -0.96989538
Cl       9.36856005       9.89723998       7.64498996       0.73407029       0.36400614       0.02144504
Cl       6.42835002       2.89723005       0.65667794      -1.83854362       0.89992853      -0.24123465
Cl       2.48460003      11.33860006      13.13290000      -0.07133904       0.14813240       0.38261494
Cl       6.44462998      10.00929999      12.35370002      -0.05907971       0.97670987       2.73921055
Cl      12.48889998       9.65495999       3.55024003       1.79128544       0.27422730      -0.48942762
Cl       3.82274997       8.83495006       7.55354996       1.30020507       0.02359637       0.36895919
Cl       7.91193002       1.15788997       6.83407002      -0.95769383       0.05966815      -0.59851275
Cl      12.45810004       8.58025999       6.63196006      -0.05640939       2.25123096       0.64943388
Cl      12.80830002       1.91805006      12.50329996       1.20884896      -0.95818947      -0.21853178
Cl       4.23824996      13.12180006      10.71100001       0.06772227      -0.15436031       0.24181119
Cl       0.72437101      12.95130002       9.00144999      -0.92103163      -0.84933191      -0.31564993
Cl       3.81469003       3.88521001       7.09989998      -1.19035896      -0.02760210      -0.92367188
Cl       2.94543998       1.56235997       0.09668352       0.85425441       0.90342773       0.67373272
Cl       9.50400996      12.33260002       2.39254996      -0.82110656       0.00750453      -0.11138465
Cl       3.58329004       8.03511002       2.40962000      -0.84433655       0.44961384       0.06804470
Cl      11.47990006       6.21960998      10.81159995      -0.05700326      -0.69589213      -0.52516352
Cl       0.64272001       1.80615995       5.81173004      -0.09902404       0.44906541      -0.36779217
Cl       9.79282005       2.55906994       2.47473005       0.31288285      -0.32141035       0.10266306
Th       8.81103000       5.88446996      11.07120005      -0.09151421      -1.87835891       2.49768789
Th       1.29151006      13.39017779      11.96399995      -1.95544088       1.10320173      -0.43729238
Th       6.40948999       8.60025003       7.33499995      -1.00199080       0.73789273      -2.92842427
Th       9.12688005       6.09824998       2.72924994       0.66328394       1.16024748       0.92123705
Th       0.36637596       7.24504996      11.22759997       3.36552021       1.86105569       1.45708168
Th      12.29529995      11.17940000       7.43564994       0.45420100      -2.56057032       0.47558874
Th       7.26259998      13.43453720       9.95160994      -1.56712452       2.64532625      -0.23102228
Th       3.99858999       4.08275997       0.27349601       0.08410187      -1.77019045      -0.78198915
Th       6.66844006      11.28589995       1.62720998       1.16833040       0.11352051      -1.63154739
Th       5.68138994       2.14490996       4.85469007      -0.19428940       0.60391190       3.05853296
Th       1.70893995       9.64822997       3.13394002      -1.26501980       0.18257469       0.49127849
Th      11.70329997       1.07332004       3.34387006       2.56180753       2.07256004      -0.71964863
Th       0.91158701       4.47065001       6.74844999      -0.68997082      -2.02598460      -0.45524397
65
Lattice="13.45251797 0.0 0.0 0.0 13.45251797 0.0 0.0 0.0 13.45251797" Properties=species:S:1:pos:R:3:forces:R:3 energy=-1783.41565336 stress="0.02907882115190081 0.0033029346460926715 0.0013675515804905196 0.0033029346460926715 0.0363074978468691 -0.0037996577973783406 0.0013675515804905196 -0.0037996577973783406 0.03174162858811827" free_energy=-1783.41967364 pbc="T T T" config_type=melt 
Cl      10.93250002       4.87607002      11.53340005       0.16537593       0.08825485      -0.21083152
Cl      11.87779998      13.08840001       7.11265001      -0.19526464      -1.30263458       0.40398979
Cl       6.86265003       1.81374004      12.88310006       1.76550606       0.43589376      -0.77684406
Cl      10.69770004       2.03843005       0.86590199      -0.28205170       0.57563727      -0.65183026
Cl       5.80059001      12.85519994       2.36401004       0.23361240      -0.54188421       0.51593663
Cl       8.33086995       1.70789993       6.92772995       1.06040450       1.36611890      -0.67884541
Cl      10.40459994       8.45329001       0.04703834       0.64217425       0.22831818       0.71256427
Cl       3.67796994       8.83659005       9.93338999      -0.37293700       0.14831629       0.05255314
Cl       3.25297005      10.38360002       4.57802007       1.85671634       0.11759340      -0.30155755
Cl      13.07389995      11.67030000       1.85883006      -0.11989855      -1.06291848      -0.23580156
Cl       8.61109007      10.32480001       4.00368001      -1.70723190       0.19359942      -0.06104368
Cl       3.28526000       6.26704006       7.05107003       1.37468942      -0.28125171       1.33719513
Cl       5.24451996       1.71697998       8.60514997      -1.03318161      -0.40848691      -0.82751660
Cl       8.21542999       3.00126994       3.62025002       1.37205667       1.01333339       1.12630033
Cl       7.10612002       4.95276000       6.57635004       0.01050250       0.67452484       0.91800982
Cl      10.89330005       0.29058999       3.78734994       2.07523072       0.05307678      -1.13019663
Cl       6.96952006       9.00315994       0.66579498       0.47948445       0.63519947      -1.08563263
Cl      12.23410001       5.73844005       1.77481007       0.11218463       2.67149735      -0.00891473
Cl       9.34154000       6.71164995       3.81142995       0.30754889      -0.79193322       0.84288555
Cl       9.27367003      11.80850001       0.11070696      -0.41704449      -0.96379050      -0.78978220
Cl      11.28389997       3.60206007       7.90120002       0.01653587       0.14039352      -0.16225896
Cl       2.93381996      12.06380001       8.02455006      -0.37001730      -0.16316020       0.72732073
Cl       8.28627996      11.36329996       7.42586001       1.30438410      -0.42848823      -0.24541288
Cl       0.35061405      12.66390002      11.40880001       0.29277386       0.06442953      -0.37255539
Cl       3.48082006      11.48450001      13.39680006       0.35816784       0.62554133      -0.87051244
Cl       1.45047995      13.30870006       4.59132999      -0.05577514       0.71557099      -0.37696016
Cl       0.08226336       2.88716999      12.57169996       0.13756933      -0.22307945      -0.94056625
Cl       9.86134005       8.17415000       7.59273997       0.58394968       0.48598133       0.11640994
Cl      12.09830007      10.09370001       5.02509002       0.25952294      -0.53349340      -1.43126195
Cl       4.19020994       3.21427994       5.41529994      -0.58736908      -1.40745679       0.54838870
Cl       3.46557997       1.57800995      11.56890004       0.71558906      -0.64002330       1.29145691
Cl       5.05144996       3.76047006       1.86143002      -0.25061250       0.06642605      -0.51985829
Cl       7.35817003       4.09902003      10.14090005       0.08632179       0.54101392       0.66707002
Cl       3.74197002       7.26662000      13.09250007      -0.23496527      -1.17228085       1.94213888
Cl      12.89169998       3.13677003       4.24157999      -0.40430883      -1.22214409      -0.61868402
Cl       2.37775004       0.60800000       1.27003002      -0.90325379       0.15381042       0.49856549
Cl       5.42937007      12.89560000       5.78578996       0.96530475      -0.56799515      -0.46776368
Cl       8.12881003       5.65843995       0.97459403       0.41697193      -1.60542410      -1.89150018
Cl      10.04940006       1.57891006      10.34280002       0.94688927       1.22803306       0.94175090
Cl       6.39873995      11.67530004      11.07160000       0.88772908      -0.91203227       0.45358654
Cl      12.29129998       6.29348005       5.30122999      -0.91308515      -0.64465132       0.23760870
Cl      10.59709996      11.18419999      10.29639999      -0.54464993      -0.92978264      -0.28731880
Cl       0.99794801       2.01214006       7.97017996       0.62409942      -0.22608685      -0.02564658
Cl       1.54333999       8.24498006       2.09959999      -0.83760395      -0.04395071       0.40238663
Cl       5.21667997       7.52468005       3.44256997      -0.63345891      -0.13136430      -0.31809190
Cl       0.23658903       9.25417007      12.44650007       0.63213514       0.53797737      -0.62345694
Cl       7.57913006       7.57995995      10.76029999      -0.53522347      -0.65744330      -0.64812189
Cl       6.04357006       8.57126994       7.11723005      -0.28396290      -0.58375938       0.27213422
Cl       0.04466774      10.01099998       8.70764995       0.11188318      -0.61485403      -0.43773929
Cl       1.83991003       3.74867005       2.27258996       0.28159321       1.13040043      -0.22752554
Cl       3.77621004       4.70463005      10.77180001       1.19085447       1.30955378      -1.74684220
Cl       0.14628107       5.83332994       9.50051997      -0.25972226      -2.32901586       0.44068574
Th       4.77235003       0.85682504       0.35169900      -2.07771240      -1.16391626      -1.15966655
Th       1.73998002      10.68289998      10.51170001       0.98375165      -0.33969720       2.21874130
Th       5.95228007      10.63380004       4.30706994       0.09465658      -1.20726806       0.55449727
Th       3.34349003       6.00382998       2.05087000       0.61699193       0.11565286      -1.32210032
Th       8.34897004       9.83774998      11.83529998      -0.29725241       2.98611143       2.06855611
Th       5.33442004       6.15693995       8.79346007      -0.77463263      -0.12072010      -1.16805606
Th       3.55143999       0.95515003       6.78194003      -0.17707524       2.13132502       0.27860081
Th       9.87753002       4.27755996       5.54442004      -1.39861444      -0.19419048      -1.92111915
Th       8.83838004       3.77576006      12.56370002       1.02853889       0.01749830       0.58590796
Th      11.09580000      10.51330005       7.47107002      -3.17838241       1.69709348       0.49407808
Th      13.40039996       0.80457506       2.35681994      -3.71829523       2.04898777       3.42297085
Th      12.99400006       3.06238002       9.94995999      -1.55226471       2.17630460       0.69672632
Th      12.13950002       8.83788997       2.15927994       0.12414712      -2.95829118      -0.22720052
65
Lattice="13.45251797 0.0 0.0 0.0 13.45251797 0.0 0.0 0.0 13.45251797" Properties=species:S:1:pos:R:3:forces:R:3 energy=-1783.27115851 stress="0.03227616700846569 -0.0033597900069919687 -0.005974542123339915 -0.0033597900069919687 0.038682648482945586 0.0030805826560716724 -0.005974542123339915 0.0030805826560716724 0.025039798377514813" free_energy=-1783.27117822 pbc="T T T" config_type=melt 
Cl      12.29740003       3.29163999       7.87172004      -0.98110149       1.07614534       0.15907713
Cl       7.97681003       7.64795005       2.79444003       0.18717435      -1.39122271      -0.85116722
Cl      11.49860000       1.07016005       3.54472006       0.77656613      -0.27342996       0.82102371
Cl       8.88961006       2.87131996       9.44308001      -0.12773892       0.20954166      -0.69761004
Cl       4.85536000       6.24782005       1.16790994      -0.30775463       0.60861169      -0.71784358
Cl      10.21929998       4.44016001       1.87016999       0.55036593      -0.15442770       0.47426799
Cl      11.21290000      12.75080006       0.71532002      -1.81282930      -1.49242668       0.32425096
Cl      10.54469998       8.26379004       0.14195299      -1.04430801       0.27898518       0.41869239
Cl       0.89251000      10.81960003       0.56904205       0.69547896      -1.88945583      -0.07781839
Cl       3.12195006       1.29170001       8.75043004      -0.94702813      -1.10255254       0.16923926
Cl      11.45970003      10.68480002       7.74780997       0.31445057       0.86900208      -1.75695770
Cl       4.95371002       8.13889001       8.78829995      -0.14620520      -0.21216365       0.17424583
Cl       4.83652002       2.78389999       2.22825005      -0.18386339       0.08987376      -0.04173877
Cl       1.63686997       7.78219999      11.69100007       0.19524334      -0.09276411       0.19054604
Cl       7.21657999       3.55975002      13.31429994       0.26678388       0.35285897       0.08494058
Cl       1.59862997      11.95030004       4.37680995      -0.52378996       0.21538321       0.18881798
Cl      13.09140006       8.28129997       2.63540006       0.81582735       0.02024968      -0.59321199
Cl       1.18632994       2.42887001       4.82367004      -0.25003527       0.58490309      -0.05187549
Cl       5.00559006      10.66680001      11.22169996       1.36411104      -0.21893958      -1.20355307
Cl       7.75147995       9.74589000       6.34246995      -0.38357863      -0.39469595       2.41787292
Cl       4.40604994      10.70790001       6.65140998       0.03660329       0.72849396      -1.12163645
Cl       2.01480003       5.93241998       3.74090001       0.86451165      -0.45128536      -0.60805700
Cl       0.61819298       5.60728997       0.53483203       0.18010693       0.68211281       0.50401114
Cl       7.69693995      12.36309997       8.38000998      -0.78540508       0.11075523       0.34638493
Cl       9.58554002       0.76113903       6.22323006      -0.28779612      -0.55072455       0.18958910
Cl      13.37290005       0.08928207       7.08720000       0.17040468      -0.17894586       0.43282798
Cl       8.77288000       5.11245000       6.77157003       1.04374886       0.04756146       0.82283117
Cl       3.94570007       3.80608997      12.29800001       0.32800342      -2.90741485       0.53783658
Cl       2.13014003       5.50902000       7.24024997       0.25225879       0.89760027       1.32708365
Cl       6.42656998       9.72732001       1.00361999       1.46249439       1.34135794      -0.19998853
Cl       7.25720000      13.19930001       0.45864006      -0.53844203       0.03414361      -0.25305987
Cl       2.36633006      13.34170003      11.69659995       0.96322240      -0.16716086       1.69345443
Cl       0.71501694       2.17721995       1.44531001      -0.38370899       0.85120296       0.50369453
Cl       1.68410001      10.27079999       9.54629997      -0.42305703       1.02896026       0.09099610
Cl       4.71482007       0.61819203       5.65660004       0.18537811       0.33869648       0.47591036
Cl       5.90195003       3.68433002       5.52199993       0.25504934      -0.42595710       0.14837675
Cl      10.53119997      10.85930003       3.60017994      -0.86701222      -0.92212554      -0.86786822
Cl       0.65533296       3.33286994      10.76479999      -0.11252434      -1.09413273      -0.18435878
Cl       9.26315003       7.45745002       9.38076996      -0.15360024       0.53336520      -0.20976323
Cl       6.00150996       0.84940302      10.60010000      -0.59025075       0.00031882       0.88311585
Cl       5.50955999       3.90768002       8.97217004       0.88362487      -2.00886808      -1.40154183
Cl       7.31325006       7.24787997      11.92670002      -0.31760591       0.18638048      -0.13382723
Cl       9.44349004      10.99980001      11.64929995      -1.07620107      -0.38741191       0.78689266
Cl      11.50580006       0.13954095      10.67959995       2.65008409      -0.54670290      -0.83965767
Cl       3.65903000      12.77179998       1.71152001      -0.16080193       0.94198045      -1.93626113
Cl       3.55415000       9.37261007       3.20962994      -0.24035052      -0.10308736      -0.64894284
Cl       1.26390994       8.73175996       6.44596999       0.26702963      -0.53516063       1.68306236
Cl      11.98059995       5.88422001       4.85518001       0.67439363      -1.50892397      -0.76817177
Cl       5.19428005       7.13422004       5.39707999      -0.16024226      -0.76584634      -0.90340416
Cl       7.12686999      12.42949999       3.93954002      -1.15131557      -0.56365110      -0.43124136
Cl      10.50499998       4.79506003      11.99220006       0.05905317       0.26901398      -0.93955916
Cl      12.85950004       6.70174998       8.94753001      -0.26303095       0.34975588       0.26577516
Th       4.31627994      11.87019998       4.02234000       1.35507366      -1.81635455       2.93583189
Th       1.60326006       8.08995001       0.97616596      -1.29117108       0.82569432       1.57030365
Th       8.64890994       5.74566997       0.14380594       0.43593147       1.17315241       0.99334853
Th       4.53645999       0.95782506      12.91320007       1.85717047       3.13995461      -0.38991026
Th       0.66401400      13.14660004       9.84079994      -2.23964421       1.99117665      -1.99714097
Th       1.90664004       7.53047997       8.95339006       0.33927245       0.07362335      -3.60977501
Th       6.51513006       1.63132000       7.55145002       0.05332740       2.01178747       1.71881502
Th       4.87503001       5.35010998       3.52846000      -0.47783205      -0.00575519       1.73627713
Th      10.59700001       5.15018996       8.74776994      -1.32205954      -2.43308301      -0.72502239
Th       6.97877997       9.78808006       9.26038002       0.14870535       0.66058454      -1.22841611
Th       9.02642997      10.97110000       1.00794995      -0.28046911      -0.06918045      -2.09453373
Th      13.07639996       3.78891998       3.30564998      -0.12103060      -0.20057135      -0.09250617
Th      11.89520001      12.03090000       5.32131998       0.32033493       2.34119461       2.50702635
65
Lattice="13.45251797 0.0 0.0 0.0 13.45251797 0.0 0.0 0.0 13.45251797" Properties=species:S:1:pos:R:3:forces:R:3 energy=-1785.40959305 stress="0.0330844412980714 7.926602370254734e-05 0.0024754242687798434 7.926602370254734e-05 0.024766320950424893 0.0024999439000676746 0.0024754242687798434 0.0024999439000676746 0.036249574657381" free_energy=-1785.41083315 pbc="T T T" config_type=melt 
Cl       9.96682999       8.31478006      13.30540002      -0.16370123       0.67854648       0.04724375
Cl       7.66515999       3.97235004       1.76711994      -0.27458721      -0.15944235       0.62783603
Cl      11.21530006       1.96178998       6.73422005      -0.12787075      -0.06626175       0.22037274
Cl       7.54472995       7.29144998      10.43460000      -2.06692692      -0.66786455      -0.79738041
Cl       7.69380000      10.42259995       2.27156999       0.56270062       0.65335069       0.04215422
Cl      12.83089998       1.20384000      11.53699995       0.19761867       0.21789544       0.46708733
Cl       8.09797000      11.73590000       8.01881000      -0.19340113      -0.17964477      -0.17676831
Cl       4.43330999       0.86416097       9.38966006      -0.20935218       0.67344807       0.18582275
Cl       2.88454002      12.95330001      12.19229994      -0.09006484       0.40263878       0.06301456
Cl       1.59018004      11.92619999       6.12030000      -0.92387932       1.08981289      -0.53972307
Cl      10.59730000       7.35838998       8.90637001       0.32103475       0.17665835      -0.35569789
Cl       1.71453001       8.20782999       1.07008000      -1.05979205      -0.12595859      -0.57530195
Cl       0.75520606       3.00539005       9.00546005       1.41389740      -0.94360680       1.48498433
Cl       4.99514996       7.89372997       7.42818998       0.49228161      -0.37693524       0.56304425
Cl      11.43389998       1.95322005       3.17501997       0.11791602      -0.33105248       0.23852589
Cl      12.43530004      12.09509998       8.64857995      -1.23839133      -1.66640507      -0.53502607
Cl       8.80431006       0.56428201       0.13593904      -0.61246934      -1.37202601       0.41833459
Cl       5.51470006      10.88079998       5.28739004       0.09935133      -0.26878995      -0.38249207
Cl      10.69350003       8.26821996       3.15629003       1.11062890      -0.58082261      -1.50245462
Cl       0.12058205       6.39429994       3.35743006       0.06119668      -0.21289438      -0.21339106
Cl      12.86409999       8.47376999       6.35372002      -0.14874063       0.65973236      -0.01158451
Cl      13.14046300       6.62491996      11.52130005      -0.38550024       0.55106179       2.64448693
Cl       4.18143002       4.58128997       2.93064005       0.18828438      -0.08404574       0.68375693
Cl       8.01893000       1.08253004       3.76476007      -0.14936940      -0.16195267      -0.17378321
Cl      11.26180004      11.60330001       5.19003000       0.09096176       0.50913798       0.38163893
Cl      11.62049999      11.84009997       0.54678499      -2.30417330      -0.91912174      -0.55535712
Cl       9.40433999       1.07160996      10.05540002       0.50367605       0.66578969       1.23966920
Cl      11.36680003       4.17800998      10.23160002      -1.13352243      -0.47669202      -0.52844001
Cl      10.06290007      10.31520002      10.57470004      -0.55905471       0.33209083       0.63995763
Cl       6.17081003      11.08569998      11.66649994       0.76360605      -0.18370644       1.03640010
Cl       1.50274002       3.33002002       0.38970398       0.33194053      -0.81963579      -2.06511621
Cl       7.75218002       3.97003002      11.62750001       1.40281979      -0.97505007       0.41415403
Cl       9.93922004       4.97553000       4.83464999      -0.18831162      -0.60034303       1.71043182
Cl       3.86003995      11.32949997       8.79349007       0.79099028      -0.35678269      -0.30173760
Cl       3.94830003       7.96260996      11.45800003       0.24320071      -0.70075729      -0.91834669
Cl       3.65521998       4.12266996      10.73790006       0.44743103       0.55515634       0.13897108
Cl       4.90384005       1.83172996       1.06483002       0.76502246       0.00896919       1.35180090
Cl       4.01754001       4.23127994       7.32938003       0.44441872       1.68334777       0.60317468
Cl       6.76999003       6.40338994       4.41270006      -0.06418171       0.46534905      -0.19406241
Cl       1.84188997       7.39304999       8.19194001       0.28407303      -0.89882839      -0.78558255
Cl       1.31882002       3.03791003       5.39299002      -0.58680242       0.52052456      -0.19677358
Cl      12.65800002       5.43770000       6.65080005      -0.55635521      -0.81814309       0.55308902
Cl       7.15539996       1.47838007       6.89126999      -0.24790423      -0.33442073       0.34796924
Cl       3.49484000      11.14640003       1.70895004       0.12582410      -0.67297198      -1.59818477
Cl       4.20450996       0.94066705       5.22361999       1.23436778      -0.31233625       0.25216269
Cl       0.92338595       9.90068005      11.41709994       0.58444901       0.37796371       0.27334578
Cl       5.68748999       8.34442995       0.72506502       0.17282143       0.37670498       1.52166500
Cl       7.71829999       4.73387004       7.91920998      -1.36047109       0.36675148       0.30434132
Cl       3.47838999       7.99294996       4.40261995       0.03432028      -0.04011091      -0.09875978
Cl       8.59214004       8.43126999       6.52750005       0.60541067       1.06408208      -0.01631614
Cl      10.89099994       4.38624998       0.68560798       0.60905017       0.53040049      -0.32523912
Cl       0.99588695       0.04318204       2.79742999      -0.89665735       0.23296224       0.87192681
Th       6.07484004       8.74223006       3.74629998      -0.81097223      -1.17702145      -0.86469929
Th       5.69088998      12.73710002       7.32551996      -1.37321592       1.65320216       0.48205141
Th      10.14469998       4.28736994       7.44651998       1.89238193       0.78306255      -0.35202815
Th       2.16781004       1.91496001      11.18759998      -1.97770699       2.08452731      -0.35768848
Th      10.79400002       9.85875003       7.90734002       0.40133088       0.35361011      -0.90845676
Th       3.23712003      10.34110002      12.44370006       0.43582212      -0.63011797       1.80314178
Th       6.08429998       2.78935996       3.48327003      -1.45946083      -0.53261290      -2.04193177
Th       1.45279997       6.29948000       5.75240000       0.22293529      -0.35285155       1.20526538
Th      10.20790005       2.35996003      12.39680001      -0.56813661       1.64762458      -3.22912987
Th       5.18633002       6.19000005       9.34976003       0.74761681      -0.08910053      -0.18470736
Th       8.69858000      10.78860005      13.26590007       2.21579675      -0.02701386      -1.25445028
Th      12.82789994       0.53276303       4.80401995       2.33120477      -1.22044862      -0.29414792
Th      12.64620001       7.15702005       0.79584504      -0.51540951       0.02136835      -0.48306204
65
Lattice="13.45251797 0.0 0.0 0.0 13.45251797 0.0 0.0 0.0 13.45251797" Properties=species:S:1:pos:R:3:forces:R:3 energy=-1789.31251139 stress="0.03730208543435014 -0.00018319286787086292 -0.003947866713247699 -0.00018319286787086292 0.035623961721212 -0.00026971574443785567 -0.003947866713247699 -0.00026971574443785567 0.03297367508934256" free_energy=-1789.31251139 pbc="T T T" config_type=melt 
Cl      11.65020006       7.23604000      11.39119994      -0.54440272       1.44133327       0.12219701
Cl      11.69000001      10.96219995       9.33560004       0.07360964      -0.46144381       0.65601608
Cl       9.34275005       5.20505996       8.31589999      -0.42295495      -0.42493316      -0.82311595
Cl       5.40691001       5.91524999       8.88732999       0.60324744      -0.01503810      -0.18266427
Cl       8.33086995      11.49740004      12.75519997      -0.07114446       0.16558710       0.77860473
Cl       0.91139504       3.64401000      12.29290002       0.08920303      -0.17968207       0.36261022